LAMMPS data file via write_data, version 29 Sep 2021, timestep = 1000000

192 atoms
2 atom types
128 bonds
1 bond types
64 angles
1 angle types

0 12.4255088949 xlo xhi
0 12.4255088949 ylo yhi
0 12.4255088949 zlo zhi

Masses

1 1.00794
2 15.9994

Pair Coeffs # lj/cut/tip4p/long

1 0 0
2 0.1852 3.1589

Bond Coeffs # harmonic

1 0 0.9572

Angle Coeffs # harmonic

1 0 104.52

Atoms # full

36 12 1 0.5564 5.457035217063286 6.18037892136875 0.5031843271171763 -1 -1 -1
48 16 1 0.5564 3.0484324887791576 2.044737845401915 3.3872828780201063 0 1 0
46 16 2 -1.1128 3.904190136766257 2.1201664156685216 3.809445480382878 0 1 0
84 28 1 0.5564 3.292012086857 3.375714605453125 4.945972210477798 -1 0 1
47 16 1 0.5564 3.9582659661929904 1.3541269705482233 4.380839582456209 0 1 0
83 28 1 0.5564 2.2102694746642184 4.4079584680305794 5.183039298036449 -1 0 1
161 54 1 0.5564 4.625321667904228 3.9226747789167318 2.7639420423815433 1 0 0
162 54 1 0.5564 5.288995860376602 4.66075640215304 1.6208465626239996 1 0 0
160 54 2 -1.1128 4.588801830610703 4.7409032318991375 2.268563050824353 1 0 0
82 28 2 -1.1128 3.0442588675790905 4.091954266080269 5.530652447107918 -1 0 1
10 4 2 -1.1128 1.244344291707789 1.9290426322360148 2.576711090407742 4 -1 0
11 4 1 0.5564 0.6718065331367832 2.653690231109581 2.325079938985956 4 -1 0
114 38 1 0.5564 1.3365238265441153 5.9506901593611055 4.413296351959344 -1 1 0
113 38 1 0.5564 0.34276713635270634 5.194854323306113 5.269482687775744 -1 1 0
7 3 2 -1.1128 5.847721046478184 5.326505976923695 6.027292853457622 0 -1 0
156 52 1 0.5564 8.526931275151023 4.314555266249961 3.981548836195002 1 0 -1
116 39 1 0.5564 1.8278475503080227 0.3399261287158432 1.7162640978277162 -1 0 1
12 4 1 0.5564 0.7181045833014629 1.4063730994085235 3.1817897376615956 4 -1 0
78 26 1 0.5564 10.770331969585659 1.9281674445101653 1.093002751548179 0 1 1
146 49 1 0.5564 12.12095243715269 4.039412776206881 3.094442217418548 0 1 1
76 26 2 -1.1128 10.348677359017705 1.5593158647085765 0.3168663269424852 0 1 1
155 52 1 0.5564 8.185002480324199 3.7831045039441396 2.605852626854286 1 0 -1
59 20 1 0.5564 7.682407519886652 4.455746292601297 0.575155935639651 1 0 2
93 31 1 0.5564 5.739964432351015 1.7639057737347492 3.6801491511837505 0 1 -1
56 19 1 0.5564 11.924291568287773 0.16103698961401902 5.407863889082095 -1 2 0
58 20 2 -1.1128 7.1888882647148815 3.88122682413686 1.1604746332871303 1 0 2
75 25 1 0.5564 8.936844413542113 5.5172443898641905 1.9244053076307748 0 1 1
91 31 2 -1.1128 6.6151395606378784 1.5210287179241155 3.3779719239618053 0 1 -1
154 52 2 -1.1128 8.9255337005559 3.966174490722456 3.184066036092351 1 0 -1
147 49 1 0.5564 10.696573185848191 3.5310962513644983 3.026227461585693 0 1 1
63 21 1 0.5564 0.9330311602946535 4.499108714886525 0.3284378027310678 2 1 -1
145 49 2 -1.1128 11.574165758332349 3.3730443277957667 2.6782580293242195 0 1 1
92 31 1 0.5564 7.204249368950182 1.8584869922127785 4.052733651832205 0 1 -1
112 38 2 -1.1128 0.7414972881488743 5.201037220670396 4.399305761555167 -1 1 0
121 41 2 -1.1128 8.659147415181431 4.8321717967855475 5.885154938708499 0 0 1
60 20 1 0.5564 6.982946968580407 3.1140932501311966 0.6263153755827232 1 0 2
192 64 1 0.5564 5.091626750869837 4.015862990374933 8.78956958272141 1 2 0
190 64 2 -1.1128 5.487128414666694 3.4909585695597647 8.093663220752022 1 2 0
107 36 1 0.5564 4.641876045207088 1.5209052077252927 8.432315916999588 1 2 0
174 58 1 0.5564 2.3218190184503738 3.0421939082338723 6.944760628734732 0 0 0
106 36 2 -1.1128 4.186665451921222 0.7944378944610317 8.858062788664531 1 2 0
101 34 1 0.5564 0.4633125972119702 1.6095992137931299 6.574645117337282 -1 -2 0
97 33 2 -1.1128 4.0187043472844675 4.864579718305262 9.83359839824261 0 1 0
98 33 1 0.5564 4.453660586180052 5.482904497909907 10.420726481539793 0 1 0
173 58 1 0.5564 2.3703516498151957 1.9622239742470278 8.00457416171406 0 0 0
99 33 1 0.5564 3.8730124653626046 4.0856836173746 10.370558902592595 0 1 0
38 13 1 0.5564 3.606244333119809 5.744380780352474 7.904742152980994 -1 1 2
172 58 2 -1.1128 1.898260758206435 2.756362366053195 7.754161993844146 0 0 0
23 8 1 0.5564 3.878498789405051 2.219127034431048 10.943465592651233 3 -1 -2
102 34 1 0.5564 12.303864145453039 0.8123701127642016 7.721007133082627 -2 -2 0
100 34 2 -1.1128 12.120256594463825 1.0973074574877042 6.825836284766609 -2 -2 0
123 41 1 0.5564 9.203752655043978 4.120632864625302 6.221828898689152 0 0 1
77 26 1 0.5564 10.00108778727748 2.3185469579831604 12.274420626404874 0 1 0
3 1 1 0.5564 0.9074116852376335 4.169182083007204 7.475956550814955 1 0 1
9 3 1 0.5564 5.275780763802251 4.595675601070891 6.261820344577064 0 -1 0
14 5 1 0.5564 8.415527890249148 4.474744910031402 10.319314107049037 -1 1 -2
1 1 2 -1.1128 0.35532358564334354 4.831232639609877 7.059880076639509 1 0 1
2 1 1 0.5564 12.417677447373627 5.333707885689893 7.789173496215986 0 0 1
61 21 2 -1.1128 0.7491468486928974 3.842354688281964 12.082312457778977 2 1 -2
18 6 1 0.5564 6.064163320328087 0.8078369549516627 11.861817685481993 -1 0 -2
16 6 2 -1.1128 6.365588453917261 1.7031987888980162 11.707863415895648 -1 0 -2
15 5 1 0.5564 8.238299842626187 5.964999578315581 10.12025000157256 -1 1 -2
191 64 1 0.5564 6.4017010466954 3.391782019799852 8.358149117089429 1 2 0
128 43 1 0.5564 8.968756233319006 2.2126624161378663 9.477368605626827 1 1 -2
25 9 2 -1.1128 0.09605881802209519 0.2048490737146757 11.741256365166752 -1 -1 0
62 21 1 0.5564 1.5923012570739057 3.417430562085576 11.924953009767561 2 1 -2
186 62 1 0.5564 10.736956001231722 4.1004229004163 10.05002504219363 0 2 0
22 8 2 -1.1128 3.4477015637931463 2.8999643535533535 11.460288719499784 3 -1 -2
26 9 1 0.5564 11.656013606111582 0.47176316025330234 12.050779873165224 -2 -1 0
130 44 2 -1.1128 11.657312356467797 5.819475647693944 9.449284754161626 0 1 -1
13 5 2 -1.1128 7.908936290796919 5.225000484409611 10.630301842134395 -1 1 -2
35 12 1 0.5564 6.407072890603322 5.997953954352761 11.764199850524525 -1 -1 -2
184 62 2 -1.1128 10.489288857208381 3.4908071434632078 10.745195147492154 0 2 0
17 6 1 0.5564 6.714535675788798 1.6890454774297587 10.816646602570973 -1 0 -2
64 22 2 -1.1128 8.932621059683083 0.5283487380799694 7.480052140919788 0 2 0
65 22 1 0.5564 8.959195493952663 0.11379440766553699 8.342415375485766 0 2 0
127 43 2 -1.1128 8.020484285427122 2.2659863423429236 9.35833617689911 1 1 -2
30 10 1 0.5564 10.641444325488395 2.239542702053051 6.904417740426228 1 1 0
29 10 1 0.5564 11.036599607196731 3.690673684062613 7.077525795017727 1 1 0
28 10 2 -1.1128 10.275427632701225 3.1106277260279542 7.0576318736497745 1 1 0
27 9 1 0.5564 0.6989398505040201 0.8267271134575745 12.148729078643234 -1 -1 0
129 43 1 0.5564 7.8492909690428085 1.7585491785188907 8.564968520590076 1 1 -2
185 62 1 0.5564 11.303929081016745 3.3234276892396903 11.219090990603142 0 2 0
108 36 1 0.5564 4.6924791867715125 0.01894187029930604 8.615183759805108 1 2 0
24 8 1 0.5564 3.598750218345808 2.6425549026251187 12.369770185558103 3 -1 -2
125 42 1 0.5564 2.5290999803919543 6.0908774195285265 9.777692520511861 1 0 0
126 42 1 0.5564 1.058470761516968 6.031696584597954 10.13215344155068 1 0 0
69 23 1 0.5564 0.7424364241672788 0.35768553504870226 9.829528694389754 1 2 0
8 3 1 0.5564 6.731070506960755 5.010436780161555 6.217097623971584 0 -1 0
122 41 1 0.5564 8.897757790032948 5.590145061365402 6.418796642227958 0 0 1
137 46 1 0.5564 2.4345962439315714 8.450474388093216 2.402598310106971 0 -1 -2
136 46 2 -1.1128 3.3837942327630985 8.552511122963528 2.33300288449139 0 -1 -2
153 51 1 0.5564 4.3549126922858425 10.089507430130245 2.4270928866483157 1 0 0
111 37 1 0.5564 3.08420456176443 7.804236673670458 5.541536708929293 0 0 -1
151 51 2 -1.1128 4.5106273862201585 11.024372953212492 2.292886779849517 1 0 0
152 51 1 0.5564 3.6391104344228697 11.39548751897833 2.155176546353079 1 0 0
115 39 2 -1.1128 1.8618109679383512 11.80900747133641 1.6982452462793736 -1 -1 1
109 37 2 -1.1128 2.730644010383802 7.095011834486479 5.004669028475167 0 0 -1
117 39 1 0.5564 0.9709792851835589 11.533127998449851 1.9139795057823659 -1 -1 1
134 45 1 0.5564 5.4723003328014155 8.727190974911549 4.5289440734877955 1 -1 -1
110 37 1 0.5564 3.467514908277934 6.814687680428247 4.4618325071184275 0 0 -1
143 48 1 0.5564 5.742501441865493 11.743578814914049 0.9861231805643431 1 1 1
70 24 2 -1.1128 0.07110494497654493 9.291793678220705 5.48391752394929 0 -2 1
138 46 1 0.5564 3.7364711942807913 7.997398980342243 3.0284892942427644 0 -1 -2
43 15 2 -1.1128 0.5955378981547207 8.271576059594027 3.0364980636313983 -1 1 2
104 35 1 0.5564 4.77730842050263 6.314913271538318 3.19498230287008 0 1 1
79 27 2 -1.1128 4.841588971036505 12.287620695326543 5.013861018536424 0 0 -1
80 27 1 0.5564 4.445962776140386 11.900421566800059 4.23297139785062 0 0 -1
45 15 1 0.5564 0.6240681021304878 8.5629769060534 3.9478176686504116 -1 1 2
81 27 1 0.5564 4.5688671994542815 11.71450773197125 5.7303777374017795 0 0 -1
44 15 1 0.5564 0.11458836671004669 8.961205648445365 2.5789716197600208 -1 1 2
87 29 1 0.5564 8.159544315060916 9.231980975440317 0.1376022301454768 0 0 1
6 2 1 0.5564 1.3700568749005348 12.259583777874907 6.0230709708531265 -1 -1 -1
54 18 1 0.5564 0.8852994520698894 6.861508674708484 1.9024330304225578 -1 -1 2
103 35 2 -1.1128 5.1355568506299845 6.960693482678784 3.80396327799066 0 1 1
166 56 2 -1.1128 8.159427457863003 8.345805052835317 3.227802015009615 -2 -3 1
55 19 2 -1.1128 12.116516585592294 12.032975062262855 4.651001460308046 -1 1 0
71 24 1 0.5564 0.19228123760551874 10.221515988356433 5.291136369207668 0 -2 1
74 25 1 0.5564 8.929419458767404 7.023309498762053 1.7707564876250548 0 1 1
167 56 1 0.5564 8.969051820164129 8.078534938112941 3.6628961678211285 -2 -3 1
95 32 1 0.5564 10.735337902738395 7.019845062833302 3.8790913336189123 -2 -1 0
57 19 1 0.5564 11.294480893533285 11.57606243835735 4.47290028932363 -1 1 0
135 45 1 0.5564 5.688993138255302 10.20130227219673 4.79715168769376 1 -1 -1
20 7 1 0.5564 7.946621489283435 11.680466637747056 0.6220624038988027 -1 -2 -2
133 45 2 -1.1128 5.611595445190236 9.355115732702247 5.237844079253644 1 -1 -1
96 32 1 0.5564 11.172249498733661 8.205151539374565 4.713388665617402 -2 -1 0
19 7 2 -1.1128 8.739594266014988 11.589924422189506 1.1504828075831075 -1 -2 -2
42 14 1 0.5564 11.637933777814819 10.71907507359552 0.8785384771010886 -2 -1 1
40 14 2 -1.1128 11.495238123624128 11.02247566314485 1.7750973920288051 -2 -1 1
120 40 1 0.5564 6.880652799068292 11.865146253479558 3.7762275287178073 1 2 1
94 32 2 -1.1128 10.465510295664174 7.566856298982139 4.6167929129084735 -2 -1 0
41 14 1 0.5564 10.566066238861717 11.250281268789069 1.8063397688690015 -2 -1 1
118 40 2 -1.1128 7.652634755819252 11.301654533441178 3.7237604062219027 1 2 1
119 40 1 0.5564 8.010961640587501 11.466110592709192 2.8515288435526807 1 2 1
168 56 1 0.5564 7.95281123010173 9.19933999733236 3.608616502466961 -2 -3 1
105 35 1 0.5564 5.40573232780251 6.448070238789945 4.56583890250388 0 1 1
33 11 1 0.5564 3.9793649235548596 8.875978554368471 0.1627213985196597 1 -2 1
164 55 1 0.5564 10.458706406990668 6.713122124398866 0.08382306309464836 -1 0 2
73 25 2 -1.1128 9.252592631253641 6.221990159518385 1.358836275564349 0 1 1
21 7 1 0.5564 9.275210287956691 12.346235641896312 0.911023706861744 -1 -2 -2
52 18 2 -1.1128 1.0844782339987482 6.304165901471233 1.1501506786651523 -1 -1 2
53 18 1 0.5564 1.5456542086477945 6.880009379109051 0.5402712975266933 -1 -1 2
142 48 2 -1.1128 5.894776381461379 11.49844839059507 0.07345933158763884 1 1 1
140 47 1 0.5564 5.033635847674148 7.160809271068473 8.523374171635766 1 0 0
89 30 1 0.5564 3.6741971324394758 9.537447892507894 9.966673693249655 0 -2 1
67 23 2 -1.1128 1.0162589197355216 12.390611221570238 9.000594717122498 1 1 0
31 11 2 -1.1128 4.704152417610691 9.104327206531067 12.006189205694746 1 -2 0
32 11 1 0.5564 5.075617505190476 8.262112574841694 11.743662922572875 1 -2 0
139 47 2 -1.1128 5.981729517359988 7.029255363916617 8.516755118333434 1 0 0
141 47 1 0.5564 6.13743765584456 6.442489489810826 7.7766925332304915 1 0 0
176 59 1 0.5564 0.1286154799886891 10.719502940548553 8.676892967343784 2 0 1
88 30 2 -1.1128 3.134983579059083 9.260274697748862 9.225960787119051 0 -2 1
90 30 1 0.5564 2.9106131722443918 8.350142408411344 9.4197363759843 0 -2 1
124 42 2 -1.1128 1.8528717010191045 6.544604438793001 10.2807620711544 1 0 0
180 60 1 0.5564 4.172689068890998 9.556849349901675 6.2751163886423 1 -3 1
37 13 2 -1.1128 3.249307731447296 6.608719561650569 7.700422368130957 -1 1 2
179 60 1 0.5564 3.3347427305383226 9.500460505118246 7.534704201431354 1 -3 1
66 22 1 0.5564 9.210550540931248 12.266472437164289 6.874669091330423 0 1 0
187 63 2 -1.1128 6.170057600177078 11.249645941177352 8.73985397629588 -1 1 0
183 61 1 0.5564 9.736806076388456 11.283507561037798 9.586771346230737 -3 0 0
178 60 2 -1.1128 3.2657649249157177 9.543139924309678 6.580947215926881 1 -3 1
39 13 1 0.5564 2.8844400294225623 6.515783787137186 6.820384674158282 -1 1 2
144 48 1 0.5564 5.303854315675277 10.760970314058598 12.346754382349534 1 1 0
5 2 1 0.5564 2.353225651913568 11.128155385206993 6.235542649230611 -1 -1 -1
163 55 2 -1.1128 11.219201898306657 7.068440891962429 12.049302586094642 -1 0 1
72 24 1 0.5564 0.524093208413276 9.15831480418096 6.316513985327508 0 -2 1
131 44 1 0.5564 11.11806685920035 6.268145768183738 8.798023467724184 0 1 -1
149 50 1 0.5564 6.906553312887593 9.081663017066617 6.59320944256983 0 -2 0
188 63 1 0.5564 6.661137910491326 10.882105672091901 8.00501649195804 -1 1 0
86 29 1 0.5564 6.921957533974486 9.966142889067468 12.09270655511434 0 0 0
175 59 2 -1.1128 11.978619327584948 9.981892337300367 8.474516086232331 1 0 1
51 17 1 0.5564 9.152173362699193 10.109293369261904 6.737398321270669 -1 -2 -1
177 59 1 0.5564 12.284996900601605 9.275420306646842 9.043077341334337 1 0 1
159 53 1 0.5564 7.803092880868447 8.369965963389559 10.223291317619726 0 1 0
49 17 2 -1.1128 9.94627878551651 10.53504032080557 6.414338028749254 -1 -2 -1
171 57 1 0.5564 9.742754531358075 7.394331408556353 6.82746488243163 1 0 -2
181 61 2 -1.1128 8.825051743553177 11.377329327928726 9.862694097641958 -3 0 0
158 53 1 0.5564 7.410415704531169 7.270720600751213 9.259258387694032 0 1 0
189 63 1 0.5564 6.842239390970266 11.566228888406222 9.343326204987754 -1 1 0
148 50 2 -1.1128 7.630922559873176 9.363308534388956 7.151955223131218 0 -2 0
34 12 2 -1.1128 5.543843392042336 6.3446745131593865 11.989702721942125 -1 -1 -2
85 29 2 -1.1128 7.634830450356348 9.407947823852044 11.782122724124404 0 0 0
150 50 1 0.5564 7.484683076498943 8.90898931608747 7.981678014253018 0 -2 0
169 57 2 -1.1128 9.924993237392917 6.887408725981215 7.618698283566467 1 0 -2
182 61 1 0.5564 8.698017861966648 10.684651150042122 10.510992784417253 -3 0 0
170 57 1 0.5564 9.398502092471112 7.30701417129224 8.299117414824616 1 0 -2
50 17 1 0.5564 10.66244521270588 10.048888298406377 6.822986658294522 -1 -2 -1
157 53 2 -1.1128 8.161059697572476 7.785987951472885 9.55466489818277 0 1 0
68 23 1 0.5564 1.9726956282808272 12.39192420585817 9.038791532442527 1 1 0
132 44 1 0.5564 11.496926179256198 6.296549121186685 10.263477003550053 0 1 -1
165 55 1 0.5564 11.9622338933742 6.575799487896524 12.397784657825772 -1 0 1
4 2 2 -1.1128 2.279742271817577 12.08215584264059 6.262285677737006 -1 -1 -1

Velocities

36 -0.020152012466066613 -0.01648135281182784 -0.008465837418381247
48 0.016329777279229078 -0.02343669906216394 -0.026697934230809007
46 0.0033760165463551563 0.006806777329512284 -0.005845348021015711
84 -0.008313596022357166 0.016118275010318518 -0.03496768292507265
47 0.011892747221319423 0.014610916647253343 0.003810933170090975
83 0.0012113565065584165 0.014128493679886403 0.01716119750244592
161 -0.017985174647048165 -0.006327766187961017 -0.009312162779069195
162 -0.014662259446327855 -0.005984710442893952 -0.007161221313344348
160 -0.00884932853315996 -0.0011737091416819522 -0.0014725084480118795
82 0.001587136004032231 -0.006768693135630517 -0.002737429959723676
10 -0.002725729105386023 -0.0015811507805366003 -0.0013306306207049366
11 0.009715657699943663 0.014917958444075138 0.017873296070229475
114 0.020380514530789515 -0.007124926221994264 -0.010894033232320428
113 0.005491393021692817 0.013883350958712841 -0.009628312697687843
7 -0.0008517969591453073 0.0029988842519462944 0.006351742643135517
156 0.02461100625574229 0.026446663613235447 -0.00558238706819867
116 -0.0017798572394041876 0.00237215854768407 -0.01865459494390654
12 -0.005571165826685163 0.0009805678104169455 -0.001592300683316509
78 0.012921485182287357 -0.011578890884116842 -0.002365573006202738
146 0.007812641651113622 -0.012424749007420693 0.016035254174106443
76 0.002170362970584974 0.0006253999108318066 -0.0023254553090286153
155 -0.002472109138561602 -0.01352899005297586 0.016593669430647672
59 -0.017494137149680133 -0.0038046969082879576 -0.009838918874202346
93 -0.003589602353804406 -0.007174752965062881 0.008717575785461772
56 -0.012706478389304094 -0.010932588644459191 0.00030681707518198154
58 0.00019506312806912522 -0.011168579048505602 -0.0021516769941848316
75 -0.01695675033692013 -0.001567771628674402 -0.014070811640066868
91 -0.0023772879766299176 0.005568600810399085 0.0019867154795910895
154 0.008453258321024948 -0.003506343863392073 -0.0005733273048034293
147 0.0102669193182823 -0.018497108875117282 0.010044310677237453
63 0.005437785480245242 0.004614739881039608 0.001944266455014948
145 0.007571645932603921 0.001407962279932741 -0.005795739441426827
92 -0.0034366556743503406 -0.002432003748016517 0.006912592282169677
112 0.009137176545553854 0.0017457975095196423 -0.00804431852865377
121 0.007061710901159796 0.006477614915119893 -0.0006697956690053367
60 0.015106456533455461 -0.020230524180115502 0.005114173202410355
192 0.02907084014721481 0.03313659067953643 -0.015474344914757975
190 0.007128362481843955 0.004044964654348387 -0.006001507492984167
107 0.0011226566561770605 0.0013943577902537833 -0.007806857030651117
174 0.0003378996742260316 0.0039377260091432945 0.005642167762072561
106 0.0006542398128670933 0.002840237679312293 -0.005840505445915942
101 -0.01316171211163236 0.011156173105313954 -0.0055904408351042986
97 0.0022174640178096684 0.0013297189460860788 0.0021426269462509542
98 0.017809946622452857 -0.0032464019522631033 -0.004589785237155122
173 -0.009882429477993804 -0.005481011482778324 -0.0034887425942481294
99 -0.0070037456050815895 0.006639393443487282 0.007340714956087338
38 0.0080294563563419 0.0057850886493359 0.0013713543695843783
172 0.0011432956311883046 0.004104331790016244 0.00612255231378557
23 -0.011558718304036625 0.0006310944328476941 -0.011452043703927349
102 -0.007799496425325996 0.027633435976145728 0.008606956394577417
100 -0.0031287109739196427 -0.002033766399985323 -0.0017962991252080684
123 0.021662430452309825 0.00314337857596173 -0.03133427220213529
77 -0.015303630629195649 0.006939307114324704 0.020895244795715678
3 0.0003502909379314554 0.0064500625013209825 -0.0013170311975140368
9 -0.0007412804050836982 -0.0066406879653258 -0.023413807623920497
14 -0.0003259633599896096 0.0026010243640405884 0.01896249532707841
1 -0.005136071304170575 0.002145706225402575 -0.0008862024055756955
2 0.002811194001972822 0.008354503725237473 -0.001207018273477271
61 -0.005000972888473892 0.007878399606307932 0.0016106509599504973
18 0.0004102620325640245 0.0042355535722476585 -0.005559345824967449
16 0.002261571070900763 0.004966018758396507 0.002313749908076164
15 -0.023857225243748788 -0.00638704906845848 -0.027389423267082574
191 0.002595560430192793 -0.030793520979499014 -0.003390072244317489
128 0.003477202012434101 -0.016703551379359517 -0.009290808693308231
25 -0.0028642756625280553 -9.790776001275691e-05 0.001933372583161303
62 -0.015072917148695386 -0.01630122338764615 0.012922679423280533
186 -0.005380285211175511 -0.014760233660489792 -0.013394792396654748
22 -0.0005577527486881111 -0.0025734834348685536 0.001939307673201418
26 -0.0037323596255712304 0.006912345786448635 -0.006540676657776662
130 -0.002726422265978159 0.005184634779734779 5.62351414307113e-05
13 -0.0034815628544976615 0.006485986976387595 0.004449437954344774
35 0.010204737491462817 0.015840845569271948 0.011235454367384705
184 0.0037737806586147743 0.002031815895352159 0.004592795283900466
17 0.040297526505143726 0.0018583722298400117 0.017257916457056877
64 0.0019965853732814547 -0.007459851456425872 -0.004048107916588568
65 -0.003367962949144713 -0.012760402712696434 -0.006431109020981865
127 0.0024950413196271016 -0.007442957418427115 0.0026745191358710026
30 -0.009521263276485862 -0.010722580457294704 0.04215298052825206
29 0.005967353777530741 -0.01151264542994502 0.013410329974964115
28 -0.002658249962960048 0.0004341374297250632 -0.004895083323564844
27 -0.0009799045308096317 -0.010376290565287164 0.014831006070880028
129 -0.015104581240156359 -0.024544335934823084 0.017408666808651097
185 0.01037024020768292 0.012070422219533732 -0.0032012574357531283
108 0.0016960957095720733 0.002175848346492965 -0.0015484058361950246
24 -0.008532822255560275 -0.025287555411934965 -0.003163496726773539
125 0.009383211507612255 -0.012738590963445427 0.023729022523219095
126 0.0026981874987371196 -0.013604368068337433 -0.0041550141992744045
69 -0.014876544382620191 0.023433619078720578 -0.01340161093336091
8 -6.43118585520586e-05 -0.008214418962626079 -0.01599553265902587
122 0.01530436523743706 -0.00374137571269171 0.010159342863413048
137 0.0007709592483960789 -0.0005124897635853486 0.0023327000135482546
136 0.0009240244462169079 0.000358370526288393 0.005693954723805562
153 -0.03967625227804785 0.0090700856635538 0.0036605644579046285
111 -0.00835130559077883 0.005281233052825212 -0.0069066156130786855
151 0.0014306831753512384 0.0025262186476636907 0.005770935021697889
152 0.0214010130994527 0.034761877468493914 -0.03372120075047485
115 -0.002552553528274161 0.0019182891991023593 0.003938930550213985
109 -0.00883039208504229 7.941281796504603e-05 0.00028092812043159157
117 -0.004029143084146475 0.007785611626830261 0.005345455247241469
134 -0.003723143043022288 0.015616635604440645 -0.013512052991518673
110 -0.010084202053011637 -0.003251339392389129 0.0002989820261881648
143 -0.00987447994664219 0.029434654279855237 -0.005590370226404087
70 -0.001394491235769221 -0.0012962235724028324 -0.0019347183187499082
138 -0.00226399556332781 0.026865202813185506 0.02846744092291899
43 0.001952229125391065 -0.0015227781627605863 -0.005246281893023381
104 0.0030604539461419316 0.004131444363769431 -0.009800993782525374
79 -0.005775559698400272 0.003712305844224253 -0.002599085237307695
80 -0.022545432128093176 0.011303454625019142 0.002132509810551952
45 0.007582823171474281 -0.016782479096016923 -0.0005435188689345685
81 -0.010396474083281988 0.010450167785142095 0.0010302333358000665
44 0.02285085122488548 0.019382352819345427 0.004295175600201799
87 0.011744721210681331 0.020470161275423622 0.0008331676651878105
6 -0.008771294899523753 -0.03496937725367975 -0.003622987550405908
54 0.014390818040547782 -0.027634512021771803 0.027990621587779672
103 -0.004500939607915678 -0.002780622777093846 0.0019754321356394273
166 -0.009275415421171 0.002935549951691404 0.007058229852720915
55 0.0038431059016794332 -0.007714317934680852 0.0021562377900039274
71 0.001134384247958668 -0.0002900989227665779 0.004507088352618711
74 -0.0016219025832898335 -0.0005867747546610163 -0.005207270303635869
167 -0.0035628529601749413 0.005394260225270317 -0.0020598372865869557
95 0.011416625915212095 0.012668732420837978 -0.0074250829975091
57 0.007736148470222052 -0.006952812535532199 -0.017764413132612514
135 0.014711002337848417 0.0095679475516612 0.004840526354523348
20 0.002648666367977828 0.002656284409597212 -0.003592775749174443
133 0.005054709370948993 0.004927153059809091 -0.0057671645114619275
96 -0.005024146312520886 7.143842840236765e-05 0.019080317156107817
19 0.0012784028805968696 -5.7724926455881357e-05 -0.0020012910150170823
42 -0.007045571154284676 -0.026772553252714815 -0.002158563623136881
40 0.004935443730633541 -0.008153629693871324 -0.006551644961158468
120 -0.010941053619651293 -0.020703992404254735 -0.004709998720313276
94 -0.002326351112371476 0.0004915947497877927 -0.0034230626383070194
41 0.012586359892222334 0.02327406658744781 -0.00812820917280483
118 0.0033830098051406813 -0.001604995240731884 0.0008851982894196622
119 -0.009693296623877964 -0.012797014659178636 -0.006597512517461296
168 -0.009350911214925813 0.0008168418927972253 0.011766364505999402
105 -0.000726155604845238 -0.013209537013933887 -0.006380210844837874
33 0.0028259442093087513 -0.014801720242419946 -0.0008305109887752137
164 0.0008784262220646024 0.008310754622838415 -0.00168943757383213
73 0.007994347133343441 -0.00019189711651859136 0.001569606384593873
21 -0.0016424044865176925 0.005603320985740666 0.009346368523545813
52 -0.010454544304951859 -0.004503622484430046 0.004274617412622761
53 -0.015989597089767462 0.009989273058410747 0.013772836169693803
142 -0.0019410303905760134 -0.006197616960938859 0.005302634238783178
140 -0.006887885892347175 -0.01941131072193377 -0.007466554683787071
89 0.0047114596365039054 -0.012335520780191562 0.005856292961611285
67 0.001164587700363168 -5.175587548957261e-05 0.0030168787804942887
31 -0.0010820226506563818 -0.000792369874019034 -0.00020080513914873667
32 0.01057807039661906 0.0061593171704976595 -0.0060039420665763295
139 -0.004594589117968169 -0.003087338356731976 -0.0035130910088296747
141 0.008370701893498879 -0.002080844783857699 -0.0015835361201962455
176 -0.010460818333412732 0.003765845701434941 0.027956949777480443
88 -0.005517411846921262 -0.004594515833778311 0.010406126809848053
90 -0.014522680888419466 -0.0022750801057894563 0.010871459462021303
124 -0.003931585906745445 -0.003925225306000789 -0.002119639387094762
180 -0.008780000601858386 -0.007805717412619849 -0.010646130118897234
37 0.0044465565658731625 0.003481120800038426 -0.0021163488300503723
179 0.008170493827226951 0.018755669109714126 0.0018195033601888257
66 0.004232138070802619 -0.004202731266621066 -0.0067200300981685255
187 -0.00469043185099343 0.0026682848361978297 -0.001091278424119478
183 0.003207814149523729 0.01904740674321387 -0.010268544269433242
178 -0.004664538545443855 -0.00172753397588017 0.0018302882890442402
39 0.008296412122179584 -0.0005178647234843653 -0.0032902043100514343
144 -0.0046130314522103205 -0.008607095493487461 0.02734262897245497
5 0.025919596296362046 -0.0016278209745206752 0.01337940334568044
163 0.005325701222940363 0.0024074217891266506 0.0011030552029324926
72 -0.011382750703037552 -0.005876968560171034 0.0027650277839502383
131 0.008508860206316082 0.005154941903322224 -0.009267440020933732
149 -0.007604075831553742 0.013035497508333053 -0.003567418026219199
188 0.007974763604352 0.013864188838425577 0.0017722347200680541
86 -0.0022225303092021096 -0.0043359734310538375 -0.0011347865795006556
175 0.0022517817302657953 0.0007183985265778548 0.0029130419207105906
51 0.001507081689903078 -0.003614603965682338 -0.00023250907655623563
177 0.004942093821133653 -0.00883207172659841 -0.010403605360692814
159 0.023324021247538428 0.00814431519739933 0.003396250266724392
49 -0.0027830927308538024 0.0009161248577363479 -0.004807410559756762
171 0.002604277773782978 0.01001209854106673 0.007128125643775138
181 0.005716127337789539 0.004376909398577234 0.0030109090905409766
158 -0.0062745748083602206 0.02337872942170576 -0.001912627415494986
189 -0.015458482475115816 0.020335753159881138 0.001635301190006109
148 -0.004885613348763618 -0.005200127681592372 0.002099435820213255
34 -0.0003686646408811007 -0.0006594090339576814 -0.003869388782677971
85 0.003056205743578623 0.0005589419082223598 0.002184375102895024
150 -0.021929458934053105 -0.002757733059351568 0.0004325779525008275
169 0.0027773631120815226 -0.003187872317670398 -0.001368876975551581
182 0.02363520531169859 -0.003556634116343789 -0.001953370726766863
170 -0.0027481861892232596 -0.01906968500468495 0.004150416122375359
50 0.0022146375622179517 0.009270143901291689 -0.0036280471484946
157 0.006602261584942023 0.005256062278936975 -0.003031554655057548
68 -0.00011209271531100017 -0.02999628295935217 0.03600105002594924
132 -0.005483138523201603 0.014299358520923624 -0.005827290524520377
165 -0.0016771835959744075 -0.014574416835083462 -0.007969267764507623
4 -0.004178809156808165 -0.0036331268396393984 0.0021487643020017444

Bonds

1 1 46 47
2 1 46 48
3 1 160 161
4 1 160 162
5 1 82 83
6 1 82 84
7 1 10 11
8 1 10 12
9 1 7 8
10 1 7 9
11 1 76 77
12 1 76 78
13 1 58 59
14 1 58 60
15 1 91 92
16 1 91 93
17 1 154 155
18 1 154 156
19 1 145 146
20 1 145 147
21 1 112 113
22 1 112 114
23 1 121 122
24 1 121 123
25 1 190 191
26 1 190 192
27 1 106 107
28 1 106 108
29 1 97 98
30 1 97 99
31 1 172 173
32 1 172 174
33 1 100 101
34 1 100 102
35 1 1 2
36 1 1 3
37 1 61 62
38 1 61 63
39 1 16 17
40 1 16 18
41 1 25 26
42 1 25 27
43 1 22 23
44 1 22 24
45 1 130 131
46 1 130 132
47 1 13 14
48 1 13 15
49 1 184 185
50 1 184 186
51 1 64 65
52 1 64 66
53 1 127 128
54 1 127 129
55 1 28 29
56 1 28 30
57 1 136 137
58 1 136 138
59 1 151 152
60 1 151 153
61 1 115 116
62 1 115 117
63 1 109 110
64 1 109 111
65 1 70 71
66 1 70 72
67 1 43 44
68 1 43 45
69 1 79 80
70 1 79 81
71 1 103 104
72 1 103 105
73 1 166 167
74 1 166 168
75 1 55 56
76 1 55 57
77 1 133 134
78 1 133 135
79 1 19 20
80 1 19 21
81 1 40 41
82 1 40 42
83 1 94 95
84 1 94 96
85 1 118 119
86 1 118 120
87 1 73 74
88 1 73 75
89 1 52 53
90 1 52 54
91 1 142 143
92 1 142 144
93 1 67 68
94 1 67 69
95 1 31 32
96 1 31 33
97 1 139 140
98 1 139 141
99 1 88 89
100 1 88 90
101 1 124 125
102 1 124 126
103 1 37 38
104 1 37 39
105 1 187 188
106 1 187 189
107 1 178 179
108 1 178 180
109 1 163 164
110 1 163 165
111 1 175 176
112 1 175 177
113 1 49 50
114 1 49 51
115 1 181 182
116 1 181 183
117 1 148 149
118 1 148 150
119 1 34 35
120 1 34 36
121 1 85 86
122 1 85 87
123 1 169 170
124 1 169 171
125 1 157 158
126 1 157 159
127 1 4 5
128 1 4 6

Angles
