LAMMPS data file via write_data, version 17 Nov 2016, timestep = 2050000

216 atoms
2 atom types

-7.3142767384070844e+00 7.3142767384070844e+00 xlo xhi
-7.3142767384070844e+00 7.3142767384070844e+00 ylo yhi
-7.3142767384070844e+00 7.3142767384070844e+00 zlo zhi

Masses

1 28.0855
2 15.9994

Atoms # charge

173 2 -1.2000000000000000e+00 -4.3836684803534149e+00 -4.7673084624293907e+00 -2.2979873120113115e+00 -2 -17 -10
99 2 -1.2000000000000000e+00 -3.5058884422595220e+00 -4.4874544188782641e+00 -4.5883652844402683e+00 1 2 9
118 2 -1.2000000000000000e+00 -5.4237588619316588e+00 -1.4288528154694511e+00 -1.6991345817751040e+00 -3 4 5
67 1 2.3999999999999999e+00 -3.3040796905408816e+00 -8.3531041739646406e-01 -5.0523573055452555e+00 -12 -5 7
143 1 2.3999999999999999e+00 -3.7060789294571226e+00 -5.6832796874968308e+00 -3.4497397844970727e+00 3 1 9
159 2 -1.2000000000000000e+00 -3.1242374924832448e+00 -1.0541801120988272e+00 -7.3810994769773619e-01 -3 4 5
132 1 2.3999999999999999e+00 -6.3480328295189761e+00 -2.4146286343516632e+00 -8.5349644950894921e-01 -8 -5 5
215 1 2.3999999999999999e+00 -4.0395983832099578e+00 -3.7065934583902083e+00 -5.8826620757504235e+00 14 2 -7
74 2 -1.2000000000000000e+00 -4.3902671958985104e+00 -6.8855977736326661e+00 -4.2794145707294540e+00 12 4 -3
53 1 2.3999999999999999e+00 -5.2151770966554842e+00 -4.9803385227732466e+00 -7.7265954283924276e-01 12 1 -9
179 2 -1.2000000000000000e+00 -3.7456055027579906e+00 -2.2106539498954407e+00 -5.6268425075554251e+00 5 -2 -4
103 2 -1.2000000000000000e+00 -3.4550231910689737e+00 -6.8181141863207839e-01 -3.4712610363112875e+00 4 -10 -3
214 1 2.3999999999999999e+00 -4.0147151214467387e+00 -5.2512422432461203e-01 -1.9269424498697192e+00 0 1 -2
184 2 -1.2000000000000000e+00 -6.5645302971220323e+00 -5.5030482740588811e+00 -1.1801210236702684e+00 3 3 10
9 2 -1.2000000000000000e+00 -5.3559323624552491e+00 -3.9648447737150878e+00 -6.6093730460880211e+00 3 10 -1
16 2 -1.2000000000000000e+00 -5.3995915869873850e+00 -3.4823128209883532e+00 -8.9894984520642512e-02 -2 6 -2
48 2 -1.2000000000000000e+00 -7.2634915154918556e+00 -3.4347511885265805e+00 -1.8347691236862957e+00 -9 -4 -2
8 2 -1.2000000000000000e+00 -2.9419653643070673e+00 -4.3666731488682879e+00 -6.9518356724539174e+00 4 3 1
14 2 -1.2000000000000000e+00 -7.1289227318600465e+00 -5.6983660193726875e+00 -3.7610302738769725e+00 -10 -6 4
89 2 -1.2000000000000000e+00 -4.2624488903390700e+00 -5.8995515790751822e+00 -4.1691052315579440e-03 14 6 -13
44 2 -1.2000000000000000e+00 -3.2539399825246513e+00 -1.6149261937671993e+00 1.7815630318684170e+00 -9 8 -7
57 1 2.3999999999999999e+00 -6.1742587417485488e+00 -4.0809974396605835e+00 6.6143636084835409e+00 -3 -2 3
63 1 2.3999999999999999e+00 -6.3851919249408953e+00 -3.2635838669960888e+00 3.7455909025980962e+00 2 -4 7
115 2 -1.2000000000000000e+00 -3.3730701803375722e+00 -1.6059813239053544e+00 4.3683455367900139e+00 8 -2 12
71 1 2.3999999999999999e+00 -7.2973757919818683e+00 -7.8138649201022803e-01 1.7715108806224387e+00 -8 12 3
138 1 2.3999999999999999e+00 -5.3370811461009442e+00 -7.0528888390217217e+00 5.6893548086850290e+00 -6 6 4
43 2 -1.2000000000000000e+00 -4.8049015743243695e+00 -3.2461692955810890e+00 3.0460302383038269e+00 6 -4 6
10 2 -1.2000000000000000e+00 -5.7249954379714234e+00 -5.5351598822659875e+00 5.9535091009173504e+00 3 7 -5
182 2 -1.2000000000000000e+00 -6.1296429857045762e+00 -3.1819526069737289e+00 5.2668767684711542e+00 -5 2 -17
203 1 2.3999999999999999e+00 -3.3982998330850327e+00 -2.4773469257646985e+00 3.1048052592444364e+00 -2 3 0
164 2 -1.2000000000000000e+00 -7.1291933655503863e+00 -1.9336756445337964e+00 2.9909441270610473e+00 0 -3 1
117 2 -1.2000000000000000e+00 -4.4388111628252345e+00 -7.1458194943970961e+00 4.2677667150575180e+00 10 -5 -5
62 1 2.3999999999999999e+00 -3.2387373086422300e+00 -7.1411987161889412e+00 2.8856390063617993e-01 3 7 -8
202 1 2.3999999999999999e+00 -2.8532942989981556e+00 -1.0780410020429025e+00 5.7009966079338703e+00 3 7 -4
139 1 2.3999999999999999e+00 -2.9841491467088450e+00 -7.2940514385018336e+00 3.5404798619118694e+00 2 -16 5
42 2 -1.2000000000000000e+00 -3.7795801062446279e+00 -7.0120705270169281e-02 6.5058958020096860e+00 -1 5 4
186 2 -1.2000000000000000e+00 -3.3818852299848139e+00 -7.3018393459431499e+00 1.9598556622225531e+00 3 1 4
150 2 -1.2000000000000000e+00 -7.0749584001342951e+00 -1.4760663944520231e+00 2.6154740181522768e-01 -5 1 -1
60 1 2.3999999999999999e+00 -5.0972198824793482e+00 2.3476542783871195e+00 -7.9871488345080310e-01 -12 8 6
155 2 -1.2000000000000000e+00 -6.7165277197851037e+00 2.3797303734308768e+00 -9.4362016983659158e-01 0 1 -3
148 2 -1.2000000000000000e+00 -4.4458895119008721e+00 3.8974002144914621e+00 -9.0842075497156383e-01 2 -4 5
94 2 -1.2000000000000000e+00 -3.7350358075585004e+00 6.3515187222538874e+00 -7.1427931964721636e-01 -4 -3 13
172 2 -1.2000000000000000e+00 -4.2050460794377305e+00 2.1592329311840019e-01 -5.7521072525998287e+00 5 -12 4
167 2 -1.2000000000000000e+00 -5.9807033939163476e+00 5.7858592196820977e+00 -1.9623353717802678e+00 10 -5 -4
140 1 2.3999999999999999e+00 -4.1113556549737611e+00 6.1928313710248046e+00 -4.6560136638691514e+00 0 5 4
163 2 -1.2000000000000000e+00 -4.4566036991587987e+00 1.1340298266838376e+00 -1.5638944703876518e+00 -8 3 1
46 2 -1.2000000000000000e+00 -5.4249862277352285e+00 5.2550396174809100e+00 -5.1498334387831894e+00 3 8 -12
101 2 -1.2000000000000000e+00 -3.7572449827295027e+00 5.4197115067719066e+00 -3.1624446721432169e+00 3 12 5
79 2 -1.2000000000000000e+00 -2.9846537549907102e+00 6.0697282789828018e+00 -5.8897481706035872e+00 3 -4 4
193 1 2.3999999999999999e+00 -4.3951026942295535e+00 5.2799236577849618e+00 -1.7421376225810703e+00 1 3 -1
204 1 2.3999999999999999e+00 -7.0442017069800213e+00 5.1924259267470338e+00 -5.7288583691716903e+00 -8 19 12
152 2 -1.2000000000000000e+00 -3.5934646860226489e+00 2.3365812066757905e+00 -7.0384219343972267e+00 4 5 -5
195 1 2.3999999999999999e+00 -4.4642736618379857e+00 1.0321115390962123e+00 -7.0575784446255430e+00 -6 -5 -1
210 1 2.3999999999999999e+00 -5.9153075127765842e+00 4.3202209441385682e+00 3.1813348424329617e+00 -6 8 -1
169 2 -1.2000000000000000e+00 -6.7498182750395150e+00 6.8978127065868993e+00 5.9871136731591026e+00 -11 -2 -8
213 1 2.3999999999999999e+00 -2.8537388291867649e+00 4.6996476294047591e+00 2.5839145472520353e+00 -9 -12 0
11 2 -1.2000000000000000e+00 -3.3831570115448169e+00 4.6583617617004709e+00 6.5227993997322109e+00 -5 -1 -3
78 2 -1.2000000000000000e+00 -6.1907904936580263e+00 4.9199206943364784e+00 4.5667404473932596e+00 6 2 10
109 2 -1.2000000000000000e+00 -7.1295007947630138e+00 5.0631971880958950e+00 2.2601268506064640e+00 -6 0 8
151 2 -1.2000000000000000e+00 -4.2708840172849740e+00 7.0339331742606372e+00 6.6297950149001492e+00 -4 -1 7
32 2 -1.2000000000000000e+00 -6.0771332168565593e+00 1.2183214527288897e+00 7.1607889441519292e+00 1 2 -17
50 1 2.3999999999999999e+00 -5.0343948184749205e+00 1.4511672569574114e+00 2.2644817433011637e+00 2 6 -5
165 2 -1.2000000000000000e+00 -5.8867837341014360e+00 2.6461227142667516e+00 2.8253398893551220e+00 5 -12 -17
100 2 -1.2000000000000000e+00 -4.3981155877887534e+00 4.6088015635222472e+00 2.8332100831074940e+00 -1 15 1
181 2 -1.2000000000000000e+00 -3.8334897857172265e+00 1.2383806781269862e+00 3.1945210609946253e+00 20 5 13
12 2 -1.2000000000000000e+00 -2.7874948771347623e+00 2.3102435710891638e+00 5.1199266527757974e+00 2 -11 -1
106 2 -1.2000000000000000e+00 -4.6123642523328900e+00 1.9716207617048460e+00 7.9267901923100648e-01 -2 -1 0
125 1 2.3999999999999999e+00 -2.7936304615889322e+00 3.2161679045332017e+00 6.4574131183811705e+00 1 3 7
18 2 -1.2000000000000000e+00 -5.9966429406088944e+00 1.4910807677711443e-01 1.9633374681620859e+00 -8 8 -2
142 1 2.3999999999999999e+00 -3.0611054095624812e+00 6.1527314834107205e+00 7.0815359158968096e+00 -7 0 8
2 2 -1.2000000000000000e+00 -7.2806089673927374e+00 4.8560119642845621e+00 7.3067629185481033e+00 1 0 -11
17 2 -1.2000000000000000e+00 -1.0118878792375789e+00 -4.4041381956796437e+00 -1.2322566202076621e+00 -6 -7 -10
91 2 -1.2000000000000000e+00 7.9469971378016646e-01 -2.1399033091094464e+00 -9.6885320380078521e-01 9 5 18
22 2 -1.2000000000000000e+00 1.3759796713228303e+00 -6.7908359888709855e+00 -4.0487102489570237e+00 -6 4 -4
177 2 -1.2000000000000000e+00 1.1794148985192010e+00 -4.6388984433664575e+00 -4.8804688113982282e+00 -3 -4 -4
6 2 -1.2000000000000000e+00 4.9017365416055630e-01 -6.4448405931654378e+00 -1.8043742254309647e+00 -5 9 9
129 1 2.3999999999999999e+00 1.8637291812012073e+00 -6.5619553956534746e+00 -2.4642669444866638e+00 -1 4 6
208 1 2.3999999999999999e+00 1.7472553450714532e+00 -9.3291914379399643e-01 -1.2209688418975730e+00 2 -11 0
216 1 2.3999999999999999e+00 -1.0868228724321325e+00 -5.9303676809647250e+00 -1.7224419262496007e+00 1 -5 -8
161 2 -1.2000000000000000e+00 3.2737690374405937e-01 -2.0477110593568884e+00 -4.7361771213779802e+00 -15 2 15
108 2 -1.2000000000000000e+00 2.0540200374923240e-01 -6.4421801336606306e+00 -6.5577132374493514e+00 -7 -6 7
61 1 2.3999999999999999e+00 7.2215385462055970e-01 -3.1836517112748464e+00 -5.6464599973316245e+00 11 -5 -5
36 2 -1.2000000000000000e+00 -1.8401208429008531e+00 -6.5474798536583512e+00 -4.1434167290584661e-01 -4 1 0
141 1 2.3999999999999999e+00 -6.5015741037284872e-02 -5.2799500102797525e-01 -5.4229908255068109e+00 -3 -10 3
24 2 -1.2000000000000000e+00 2.2057500253394422e+00 -2.8868068290219862e+00 -6.2919928238889797e+00 4 0 1
56 1 2.3999999999999999e+00 1.3669127074475553e+00 -6.0989866135074324e+00 -5.5396887627301812e+00 2 -5 -9
207 1 2.3999999999999999e+00 -1.6616746632563106e-01 -3.3577224788370166e+00 -3.6204585625167313e-01 5 1 5
160 2 -1.2000000000000000e+00 -1.7071014815421950e+00 -4.8041154770802524e-01 -5.4602184671786720e+00 4 13 -16
149 2 -1.2000000000000000e+00 -3.5658307825540891e-01 -3.5352916673124692e+00 -6.7361327879508295e+00 -8 1 13
87 2 -1.2000000000000000e+00 3.3993280494410427e-01 -7.6419547238527752e-01 -6.9573847738674770e+00 8 -5 -4
98 2 -1.2000000000000000e+00 -2.1328397537676427e+00 -6.1750694584699808e+00 -2.9370827244935147e+00 7 -3 5
122 1 2.3999999999999999e+00 9.9089077822453875e-01 -5.3042710867171872e+00 1.8265776873806965e+00 9 3 9
112 2 -1.2000000000000000e+00 -1.4175353415305085e+00 -4.0788073487425963e-01 5.5214270441990339e+00 1 3 -10
180 2 -1.2000000000000000e+00 -1.1548062456473491e+00 -4.3141746932395870e+00 5.7020851888888426e+00 5 18 3
170 2 -1.2000000000000000e+00 2.9368207898839832e-01 -4.9470908876816448e+00 3.2441660718238383e+00 1 1 1
190 2 -1.2000000000000000e+00 -2.1032839708607196e+00 -3.4689098757330732e+00 3.3936579029975489e+00 -11 -13 1
59 1 2.3999999999999999e+00 -1.1848839565410056e+00 -4.6348174920110345e+00 4.1428593388929418e+00 -9 -6 -3
174 2 -1.2000000000000000e+00 6.5481711051951808e-01 -4.0374897651004122e+00 7.9047772233023150e-01 5 -11 -6
68 1 2.3999999999999999e+00 -1.6877134324664447e+00 -3.6680302340391133e+00 7.0125188040365476e+00 10 12 2
83 2 -1.2000000000000000e+00 5.1949811466331630e-01 -6.7689389705505727e+00 1.1892865264766650e+00 -6 -14 -13
20 2 -1.2000000000000000e+00 -1.2398679430874235e+00 -2.4290558768876513e+00 3.6058582894913421e-01 -17 5 -13
134 1 2.3999999999999999e+00 -2.2081067927094167e+00 -1.2053964613697712e+00 5.9603095009402185e-01 1 9 -6
95 2 -1.2000000000000000e+00 -1.9905295555821632e+00 -6.0532067626760462e+00 3.9441160181813957e+00 16 -6 12
30 2 -1.2000000000000000e+00 1.2965320482957596e+00 -2.2802413029512025e-01 5.2781254290160069e+00 -6 -2 4
72 1 2.3999999999999999e+00 1.4659403892167211e-02 -8.8724051720233524e-02 6.1917857153294715e+00 0 20 9
105 2 -1.2000000000000000e+00 2.4000085182371449e+00 -3.4412877776990530e-01 1.4522284560323950e-01 -9 11 0
119 2 -1.2000000000000000e+00 -2.4070823098879148e+00 -2.2479100781837880e+00 6.6445435472212226e+00 4 -2 -1
157 2 -1.2000000000000000e+00 8.8232937276849818e-02 5.7948294542523353e+00 -6.3007344687585993e+00 6 -5 -17
176 2 -1.2000000000000000e+00 2.9276766560608303e-01 2.6353058841803430e+00 -2.9794594805387673e+00 10 -2 5
212 1 2.3999999999999999e+00 3.1145608437647671e-01 4.1348941268614849e+00 -2.3423613711023306e+00 9 3 -1
81 2 -1.2000000000000000e+00 6.7307225047631591e-02 3.3341508191206648e+00 -5.9550157122015843e+00 15 -4 -1
39 2 -1.2000000000000000e+00 -1.9928465413391053e-01 4.8114611052310847e+00 -3.6738255070499668e+00 1 -9 -7
168 2 -1.2000000000000000e+00 -5.1618426094774983e-01 4.3485994949861588e+00 -1.0359190295468192e+00 3 7 -6
126 1 2.3999999999999999e+00 1.2241796226480588e+00 1.3537607826687512e+00 -3.2590862259544742e+00 -1 -4 1
198 1 2.3999999999999999e+00 2.8471246873143807e-01 4.6801194857041670e+00 -5.0937193920100468e+00 1 4 -3
1 2 -1.2000000000000000e+00 1.8975367389455713e+00 4.3401150686280410e+00 -1.9921348682046487e+00 -9 11 5
166 2 -1.2000000000000000e+00 6.9290749776807070e-01 5.2295413296949977e-01 -4.5920084341202259e+00 1 1 -6
34 2 -1.2000000000000000e+00 1.9706980118143997e+00 4.8464129638363396e+00 -4.8137382803484989e+00 -4 15 4
4 2 -1.2000000000000000e+00 8.9976393528454901e-01 3.9095298011253965e-01 -1.8958959724278230e+00 9 5 2
153 2 -1.2000000000000000e+00 -1.1384178400157229e-01 1.4595910156576788e+00 6.8731446132771339e+00 -8 4 -5
85 2 -1.2000000000000000e+00 -1.6752882144822430e+00 6.6418602780560887e+00 6.5621482978903014e+00 6 -12 -6
147 2 -1.2000000000000000e+00 1.5943304434396903e+00 3.2827166134930019e+00 6.7129689387250790e+00 -8 3 2
124 1 2.3999999999999999e+00 1.1039028216457163e+00 6.4314362171722559e+00 1.7276045985582880e+00 4 8 -7
7 2 -1.2000000000000000e+00 8.9527259160327632e-01 6.7613720956779293e+00 6.0959844262818965e+00 -19 -17 5
175 2 -1.2000000000000000e+00 9.4228822471226104e-01 1.1906768457871708e+00 1.4559267155220004e+00 5 -3 -7
49 1 2.3999999999999999e+00 -6.9847695949128696e-01 1.3769942496921075e+00 1.4240916642370010e+00 -3 -1 -1
120 2 -1.2000000000000000e+00 -9.2027308614201808e-01 2.7487054717546400e+00 7.0811487490876290e-01 5 0 2
88 2 -1.2000000000000000e+00 9.9715169349067057e-01 6.4247763327671601e+00 3.3315616252013189e+00 7 -2 1
77 2 -1.2000000000000000e+00 -1.2526043570702297e+00 1.0522731196055626e+00 2.8696225356876877e+00 4 -1 -1
121 1 2.3999999999999999e+00 -8.1759606526650042e-01 4.3188864558011284e+00 4.7116678559962899e-01 13 -5 4
41 2 -1.2000000000000000e+00 2.5781636015986931e-01 5.1908784341326646e+00 1.1493581021245405e+00 0 3 -1
206 1 2.3999999999999999e+00 1.6942965270533539e+00 6.3399583655673375e+00 4.7804368935550432e+00 16 -6 2
75 2 -1.2000000000000000e+00 -1.1918055237306031e+00 3.6168552657156150e+00 6.5759580959454826e+00 -13 4 20
13 2 -1.2000000000000000e+00 1.8334333059869889e+00 4.7578152066341834e+00 4.7844153251148143e+00 7 -3 -12
104 2 -1.2000000000000000e+00 -1.5002367260209457e+00 1.7709790146832904e-01 7.7075028334701523e-01 0 -7 -7
133 1 2.3999999999999999e+00 -2.3383362078527661e+00 1.8632997347323146e+00 3.6465635611225542e+00 6 -7 5
93 2 -1.2000000000000000e+00 -2.2056600151182293e+00 4.9339871275595906e+00 1.1547056311903061e+00 1 -2 0
189 2 -1.2000000000000000e+00 -2.1997334107164734e+00 3.3899676575294118e+00 3.1364782407762277e+00 6 2 -8
171 2 -1.2000000000000000e+00 2.0394079866903030e+00 1.9996261109002105e+00 4.6564608406308121e+00 19 4 -6
69 1 2.3999999999999999e+00 -2.2477480317747806e-01 6.9605937011674843e+00 7.1609108464509603e+00 -14 -1 3
144 1 2.3999999999999999e+00 2.4155238024971850e+00 4.8429331580521401e-01 1.5471200508296954e+00 2 -3 7
84 2 -1.2000000000000000e+00 -2.2720901799425568e+00 5.9061291852806646e+00 3.6258414558635579e+00 -3 0 -1
201 1 2.3999999999999999e+00 5.9664247177008564e-02 2.9685731342243553e+00 7.1830960171514215e+00 -5 -4 18
31 2 -1.2000000000000000e+00 4.4032215056598139e+00 -3.1258635247613920e+00 -2.2877539842024759e+00 0 3 1
90 2 -1.2000000000000000e+00 3.9121333627434280e+00 -1.0463768375944431e+00 -7.1415992479493653e+00 -7 4 -4
97 2 -1.2000000000000000e+00 5.3040367370685546e+00 -6.3897187757344165e+00 -5.0346523704939328e+00 -8 -3 -1
55 1 2.3999999999999999e+00 4.3164202054002603e+00 -6.9799990128772951e+00 -6.1699587974648011e+00 -16 -1 0
199 1 2.3999999999999999e+00 4.0008367305252612e+00 -1.7312312925372764e+00 -3.0333217129851788e+00 1 -10 -2
178 2 -1.2000000000000000e+00 4.0901932400301195e+00 -2.0080654927243073e+00 -4.6232311065058331e+00 5 -2 2
58 1 2.3999999999999999e+00 3.6591188726304962e+00 -2.3087345334517129e+00 -6.0330408315178454e+00 -2 1 3
156 2 -1.2000000000000000e+00 5.4599107114579724e+00 -5.3090320820072421e+00 -2.1770074631994247e+00 0 -5 0
52 1 2.3999999999999999e+00 4.1452133004697744e+00 -4.4716431323450418e+00 -1.5408490646574460e+00 6 3 -18
209 1 2.3999999999999999e+00 7.0580697750566648e+00 -4.9353267082430570e+00 -2.3414175268727577e+00 -11 -7 10
127 1 2.3999999999999999e+00 6.5712568118548393e+00 -6.9895901195371666e+00 -4.1996442678665646e+00 0 -6 5
76 2 -1.2000000000000000e+00 4.7149895815914498e+00 -3.3715875745898871e-01 -2.5551164728052611e+00 13 3 -1
37 2 -1.2000000000000000e+00 4.6407969466516139e+00 -3.3972530499903106e+00 -6.7372011077189145e+00 -3 -4 6
29 2 -1.2000000000000000e+00 2.8237386337988268e+00 -6.4305851303417123e+00 -6.0714575573437513e+00 -17 12 -3
114 2 -1.2000000000000000e+00 2.5343408280795030e+00 -1.4405202700177901e+00 -2.5312767293029905e+00 -13 6 -3
146 2 -1.2000000000000000e+00 2.7886637936058896e+00 -5.3874417088418101e+00 -1.8600709522184213e+00 2 11 8
205 1 2.3999999999999999e+00 6.3067375422652603e+00 -5.7310125474801454e+00 3.0479085950364393e+00 -3 2 -6
15 2 -1.2000000000000000e+00 4.9337541793612392e+00 -2.3346642919956717e+00 5.6584472107329242e+00 -17 4 -3
183 2 -1.2000000000000000e+00 2.4789825083999961e+00 -5.4300384953222087e+00 1.9169943234861839e+00 -3 1 1
82 2 -1.2000000000000000e+00 4.2540670901230602e+00 -6.7490198528715508e+00 6.4425009097981389e-01 -1 -2 -2
47 2 -1.2000000000000000e+00 5.0839531754026694e+00 -4.9638468749750855e+00 2.2912102451575702e+00 10 0 5
197 1 2.3999999999999999e+00 3.9673121796326769e+00 -5.2940377284765781e+00 1.2867354159812658e+00 -9 -9 -6
107 2 -1.2000000000000000e+00 4.5147770160619558e+00 -4.8971927462071383e+00 5.7315238495525289e+00 5 5 1
27 2 -1.2000000000000000e+00 4.9281576040239878e+00 -6.9925611479028715e+00 6.9723723672839508e+00 0 5 4
196 1 2.3999999999999999e+00 4.8928314629846090e+00 -8.4294492317182801e-01 6.1506975959936092e+00 8 -7 5
131 1 2.3999999999999999e+00 5.3132439696653799e+00 -3.6751397426069263e+00 6.4357983307144320e+00 -1 -8 8
96 2 -1.2000000000000000e+00 5.4163955804136821e+00 -6.6315070706105370e+00 4.1734485301334763e+00 -10 -8 -6
64 1 2.3999999999999999e+00 4.4876546105295878e+00 -6.5401590221787798e+00 5.4916376904337048e+00 -3 -1 -12
187 2 -1.2000000000000000e+00 7.0209978006627436e+00 -6.9473295285464243e+00 2.1452086244638950e+00 3 -6 -3
19 2 -1.2000000000000000e+00 6.7654038801670557e+00 -4.1704563227112752e+00 6.8065516372849890e+00 -1 0 -4
113 2 -1.2000000000000000e+00 2.4695149780235046e+00 -6.3328872530468844e-02 3.0059962817148116e+00 -5 8 -17
154 2 -1.2000000000000000e+00 7.2625319901067567e+00 -4.5057373691931044e+00 3.4591673621039014e+00 5 4 -7
3 2 -1.2000000000000000e+00 6.3620647591925277e+00 -2.6458026510606736e-01 6.5087346040434459e+00 1 -7 2
162 2 -1.2000000000000000e+00 4.1166001168843982e+00 -4.2686520446263909e+00 1.2720135506916416e-01 -2 -1 3
5 2 -1.2000000000000000e+00 4.2579140566997893e+00 5.5348998427358902e+00 -8.7372033971257801e-01 5 3 2
128 1 2.3999999999999999e+00 5.8311032270986587e+00 2.6694065321128519e+00 -5.3311440114847892e+00 1 2 7
200 1 2.3999999999999999e+00 4.5278272049444714e+00 1.4032400669931022e+00 -2.9614151340694708e+00 -8 -7 -11
86 2 -1.2000000000000000e+00 6.5716755232793611e+00 4.2743857865265049e+00 -1.6297156245067927e+00 2 2 -1
135 1 2.3999999999999999e+00 3.2752934207518143e+00 5.3380002056721017e+00 -2.1020367393960240e+00 0 -3 -2
191 2 -1.2000000000000000e+00 5.4843953562424161e+00 1.7610279604310097e+00 -4.2422916341575005e+00 15 5 10
192 2 -1.2000000000000000e+00 2.8971431076855354e+00 1.5891381054337275e+00 -3.1165283603263556e+00 -9 -8 -5
73 2 -1.2000000000000000e+00 4.0585629479112990e+00 4.8708118833090701e+00 -3.3338946630162640e+00 -6 -4 8
45 2 -1.2000000000000000e+00 5.1540089742730428e+00 2.1160998749943452e+00 -1.7428710341280162e+00 -6 -11 -2
65 1 2.3999999999999999e+00 6.3564675829574835e+00 2.8928076278374295e+00 -7.8280948509355286e-01 8 12 3
26 2 -1.2000000000000000e+00 4.5060731601832043e+00 3.6906693459583888e+00 -5.5449047192649887e+00 -2 16 3
92 2 -1.2000000000000000e+00 4.0877881111604708e+00 6.1417028975514310e+00 -5.6160479126278862e+00 19 -3 -6
102 2 -1.2000000000000000e+00 6.1695886707139946e+00 1.9166835615434190e+00 -6.6901142673365577e+00 12 -1 -3
54 1 2.3999999999999999e+00 3.6331238145021136e+00 4.9399033034117927e+00 -4.9299304131907284e+00 -5 8 -7
185 2 -1.2000000000000000e+00 6.5050615457012739e+00 6.9893218963973966e+00 -2.7858911512842384e+00 5 -10 0
111 2 -1.2000000000000000e+00 6.8768429790346559e+00 3.8383459710358037e+00 -5.0296406282757680e+00 -13 6 0
116 2 -1.2000000000000000e+00 2.5473344311576298e+00 6.6655369387587813e+00 -2.1121508069806456e+00 -7 -1 1
110 2 -1.2000000000000000e+00 7.0944091052089542e+00 6.2471441545173754e+00 -9.9661969283499574e-02 3 -2 3
130 1 2.3999999999999999e+00 6.9731880464080325e+00 5.9055472556032864e+00 -1.6878904505557439e+00 0 16 0
40 2 -1.2000000000000000e+00 7.0484089206892140e+00 6.6048866691008925e+00 -5.2355909459156109e+00 -3 -7 7
137 1 2.3999999999999999e+00 2.4466577016687787e+00 3.4278700237930142e+00 5.3498903012618513e+00 1 -5 2
70 1 2.3999999999999999e+00 7.0360302229489395e+00 1.1845650866902937e+00 6.7281059543431967e+00 13 1 1
25 2 -1.2000000000000000e+00 6.0047719384523246e+00 2.6875113451891615e+00 7.7539519420088010e-01 3 -6 -2
66 1 2.3999999999999999e+00 5.3204323890704606e+00 1.7915020157596959e+00 1.9711391749761769e+00 -3 12 -11
23 2 -1.2000000000000000e+00 3.8486737216116342e+00 1.3474755891517745e+00 1.6558866400506436e+00 5 -4 4
145 2 -1.2000000000000000e+00 4.0434039128021855e+00 3.2887553970752146e+00 5.4825191825118020e+00 6 -3 -5
21 2 -1.2000000000000000e+00 6.6100788225143789e+00 2.2714616620160522e+00 5.5465196882801626e+00 -6 -3 -11
211 1 2.3999999999999999e+00 5.5323693672208716e+00 3.2183456434287971e+00 4.8885755521396037e+00 4 -13 -3
28 2 -1.2000000000000000e+00 6.0510183463452556e+00 4.6731553535311967e+00 4.9870068129692449e+00 4 -10 -3
35 2 -1.2000000000000000e+00 5.3779914471574362e+00 2.5444381112784797e+00 3.4059008179484715e+00 -3 5 0
194 1 2.3999999999999999e+00 6.7917918256217140e+00 6.1623982064127372e+00 1.4778815903961546e+00 2 -11 2
51 1 2.3999999999999999e+00 4.0501362841677642e+00 6.2164698420399924e+00 6.4872170031653498e-01 -12 -7 6
38 2 -1.2000000000000000e+00 5.2040287569154913e+00 5.8057979293289703e+00 1.5583096697368308e+00 -2 2 1
136 1 2.3999999999999999e+00 7.2527310732613754e+00 5.3184031393119184e+00 5.8066362827739031e+00 0 10 -11
33 2 -1.2000000000000000e+00 6.2602513181962696e+00 3.7661997069318415e-01 2.0272326635338116e+00 -6 -5 1
188 2 -1.2000000000000000e+00 3.9569724480280462e+00 9.8587923098277602e-02 5.1223996509397871e+00 5 7 10
158 2 -1.2000000000000000e+00 2.5707112897515656e+00 6.2753195168912530e+00 1.1770681222630284e+00 3 -7 3
123 1 2.3999999999999999e+00 2.4997465426657883e+00 3.2401176020808209e-01 4.5041407077336162e+00 1 -3 -2
80 2 -1.2000000000000000e+00 3.2281026812244598e+00 7.2124291789544221e+00 5.0834342768021958e+00 0 -8 7

Velocities

173 2.9438912425226178e+00 -3.4478676762594835e+00 -5.1155143946614974e+00
99 4.3045743181495916e-01 1.3845141879517277e+01 8.4833731248685513e+00
118 3.8742021861002574e+00 6.7079526473568873e-01 1.2748325536139791e+00
67 -2.7091151035622403e+00 -5.9557552450931182e+00 3.0054895540607456e+00
143 -1.1453051763843969e+00 3.3149458344044289e+00 2.8445372075796356e+00
159 -1.7777969494478614e+00 4.8734611830414503e+00 -4.7403705655163142e+00
132 9.9912303531382285e-01 -2.2141692220766163e+00 -3.8763098645578647e-01
215 -4.4190934474606767e+00 -3.8844559769186313e+00 -1.6477598618518203e+00
74 3.9326941991764683e+00 -3.9382875231956751e+00 -3.1041105358627892e+00
53 -1.3524392420976419e+00 2.8452837141968659e+00 -1.5093731291706762e+00
179 -2.8277173464480012e+00 1.7388303412977741e+01 6.7899680619176435e+00
103 1.6776619327973787e+00 7.1613821709980803e+00 -2.6447537230652101e+00
214 -5.0093228890619228e+00 -2.3558896125247788e+00 2.1536239862510413e+00
184 -6.8598184949828367e+00 8.5039707375446927e+00 8.3452287303729200e+00
9 -4.3512812859377856e+00 -9.3312420578846709e+00 -9.9030445781036358e-01
16 1.1241402760375641e+01 -1.6252992982848911e+00 -9.2401257247824145e+00
48 -4.7855630243277227e+00 2.3596870687137472e-01 1.3509568279389709e+01
8 -3.2224498515889204e+00 -6.3687072130981068e+00 -1.2816136076620088e+01
14 -6.9342187917405056e+00 -1.7098034888304412e+01 3.4086464753511918e+00
89 5.5529964775727225e-01 2.3280059774281772e+00 7.7229464727384514e+00
44 -6.1043973955414552e+00 5.7610117965233743e+00 9.7222496279149140e-01
57 9.5072811703566416e+00 7.9051440525354328e+00 4.3381161576819638e+00
63 -3.5188329197551447e+00 5.7441225288166704e+00 4.8436276493872841e+00
115 -1.7139350587628912e+00 -8.0231503725987507e-01 4.9527726926347331e+00
71 1.0156245429119082e+01 7.6946596948852237e+00 4.5013207799482302e+00
138 6.2920875827605780e+00 7.7083231866729585e-01 -4.4784527277940906e+00
43 1.3488538323934144e+01 8.1255129298056428e+00 1.0755181282697139e+00
10 4.5780806497453028e+00 3.3303447614195805e+00 7.5572827610393798e+00
182 5.9861941925884921e+00 3.3158776907610710e-01 -1.6508718426770741e+00
203 2.3654419520107788e+00 2.2645083454297388e+00 -7.7634362080448680e+00
164 9.6296582090353322e+00 1.2527495053311066e+00 -1.5266343676983878e+00
117 -1.0587847427458456e+01 -5.6363801691544850e+00 6.8976543838290709e+00
62 -5.2261001191563858e+00 -8.4252228301904655e+00 1.1412346904278428e+00
202 4.1140648628525787e+00 -1.6135540473708905e+00 -8.7174884453463992e+00
139 1.3597389069450681e+01 -6.6969257906670077e+00 5.8112477436493366e+00
42 2.4213442402441765e+00 7.7452511461808706e+00 -1.7447127539268728e+01
186 9.9289735647656681e+00 3.9368728513001741e+00 -1.4877994868529820e-01
150 7.7308700107475365e+00 1.2358826481560727e+00 1.3893723604248899e+01
60 -5.1965671988234075e+00 3.0000346316636168e+00 -7.9821344051344081e+00
155 -1.8412006008352112e+01 -2.3617282607361254e-01 -5.9204057273267967e+00
148 -5.0897703557233609e-02 1.6991186357274746e+01 -4.4445501815462363e-01
94 1.1626103143595665e+00 -1.5514252012062384e+00 -8.0686749042403960e+00
172 7.0617466734979928e+00 2.8614415695855109e+00 -2.1014584000975063e+00
167 -1.9130186474463762e+00 -1.2209139630981396e+01 -1.4927619622534756e+01
140 -5.5057844876996596e+00 5.9106437614740006e+00 -4.9794211106838171e+00
163 -9.6769817999332961e+00 4.5168117366839278e-01 -4.6953937645708690e+00
46 6.2286308977506541e+00 -1.9907224567965218e+00 -1.1336244509924912e+01
101 -3.2686397197195278e+00 4.9159906297235043e+00 9.8838703526784033e-02
79 9.7904264712936424e+00 -1.2677491307096240e+01 -8.7542286232700550e-02
193 3.5132333489414265e+00 -3.9947924850609473e-01 -1.0021486088571450e+01
204 2.7003523604405912e+00 2.7515048097579915e+00 1.8383789223043063e+00
152 2.5434450539497400e+00 5.8632590259660988e+00 -3.2064505308850388e+00
195 -1.4215147159881605e+00 -3.2665251958461963e+00 -1.2173634194413467e+00
210 -1.3910176688067411e+01 1.0177116358414717e+00 3.9337517974207326e+00
169 -8.1466352662470083e+00 -4.2085655619810209e+00 3.9319399042668546e+00
213 -4.6883371180727593e+00 -3.5081542901921487e+00 2.6966156711540235e+00
11 3.0070108997190217e+00 8.4789020852259682e+00 -1.3130527118819028e+01
78 1.6448556905590477e+00 1.6273939112782063e+00 -7.1016897238785699e+00
109 -1.4295141588474431e+01 -8.7135667951435334e+00 7.4171137555175326e+00
151 1.0922586269046877e+00 9.3051690019692792e+00 1.5027946704930706e+00
32 1.4448905561395073e+01 9.9879465991162721e+00 -6.5092371949257348e+00
50 -3.0026042636864041e+00 1.0315653907329823e+01 6.2210295876052575e+00
165 6.3459910454901589e+00 -9.8766263431603729e+00 1.4610684881615823e+00
100 -2.6549002796574301e+00 -1.1029401274557669e+00 1.1202436696860874e+01
181 -1.5262162943832456e+00 -4.3962470731684897e+00 1.4334171542933605e+00
12 -4.8796947280489028e-02 8.4295634507843484e+00 -5.8309026575989655e+00
106 -7.0295163382503274e+00 -1.3673146604457251e+01 2.0924695524357189e+00
125 -1.1471856443857789e+01 6.4956352685765856e-02 -4.0574148822197094e+00
18 -3.4650717859091000e+00 7.0442909199752908e+00 9.8039938415559185e+00
142 -3.6990010601177752e+00 -7.1177431056808906e+00 -5.3111404882706399e+00
2 -3.7055672175039529e+00 -5.0473624029528095e+00 -1.9290445103281981e+00
17 7.3485180389209370e+00 -6.5897885032523522e+00 2.4552714333646302e+00
91 -5.1060119327236348e+00 3.6523817124810218e+00 -1.1345226176090023e-01
22 -8.3224970514274776e+00 5.5413618821059902e+00 5.9577376566827960e+00
177 -5.7189685022540460e-02 -3.3517423209211739e+00 1.3321887733836271e+00
6 -2.3442599189103741e-01 -1.3786353179435713e+00 -8.8310140251705675e+00
129 -2.2007217760446789e+00 3.2377643227286512e+00 4.9720485768328224e+00
208 4.7621618093398972e+00 -1.0003713539879189e+00 -6.6825417453651728e+00
216 2.4233280153866597e+00 2.1645447760495276e+00 1.4151578865752024e+00
161 4.7004891333918435e+00 1.1276935900620522e+01 2.0754666720426549e+00
108 -1.2729586702041630e+01 -2.6102979369733808e+00 1.3153300203953147e+01
61 1.7096108518197375e+00 -5.9732076469012032e+00 3.2788591197213415e+00
36 5.0851188305395989e-01 2.8945499676065714e+00 -1.8081091109189227e+00
141 2.9371453415906084e+00 -1.5532730338673845e+01 -5.1666317717351919e+00
24 4.5900888808673370e+00 1.6569733335678731e+00 1.4240993502412451e+01
56 5.8510166573787199e+00 6.4809366651145934e+00 -7.0104121528258272e+00
207 6.3712500370703182e+00 3.1953553948237605e+00 8.4831071357139685e+00